t 0.00505 /NodeList/18/DeviceList/0/$ns3::WifiNetDevice/Phy/State/Tx DsssRate1Mbps ns3::WifiMacHeader (DATA ToDS=0, FromDS=0, MoreFrag=0, Retry=0, PowerManagement=0, MoreData=0 Duration/ID=0us, DA(RA)=ff:ff:ff:ff:ff:ff, SA(TA)=00:00:00:00:00:13, BSSID=00:00:00:00:00:13, FragNumber=0, SeqNumber=0) ns3::LlcSnapHeader (type 0x800) ns3::Ipv4Header (tos 0x0 DSCP Default ECN Not-ECT ttl 1 id 0 protocol 17 offset (bytes) 0 flags [none] length: 48 192.168.0.19 > 192.168.0.255) ns3::UdpHeader (length: 28 654 > 654) ns3::aodv::TypeHeader (RREP) ns3::aodv::RrepHeader (destination: ipv4 192.168.0.19 sequence number 0 source ipv4 192.168.0.19 lifetime 2000 acknowledgment required flag 0) 
r 0.00591455 DsssRate1Mbps /NodeList/13/DeviceList/0/$ns3::WifiNetDevice/Phy/State/RxOk ns3::WifiMacHeader (DATA ToDS=0, FromDS=0, MoreFrag=0, Retry=0, PowerManagement=0, MoreData=0 Duration/ID=0us, DA(RA)=ff:ff:ff:ff:ff:ff, SA(TA)=00:00:00:00:00:13, BSSID=00:00:00:00:00:13, FragNumber=0, SeqNumber=0) ns3::LlcSnapHeader (type 0x800) ns3::Ipv4Header (tos 0x0 DSCP Default ECN Not-ECT ttl 1 id 0 protocol 17 offset (bytes) 0 flags [none] length: 48 192.168.0.19 > 192.168.0.255) ns3::UdpHeader (length: 28 654 > 654) ns3::aodv::TypeHeader (RREP) ns3::aodv::RrepHeader (destination: ipv4 192.168.0.19 sequence number 0 source ipv4 192.168.0.19 lifetime 2000 acknowledgment required flag 0) 
r 0.00591479 DsssRate1Mbps /NodeList/5/DeviceList/0/$ns3::WifiNetDevice/Phy/State/RxOk ns3::WifiMacHeader (DATA ToDS=0, FromDS=0, MoreFrag=0, Retry=0, PowerManagement=0, MoreData=0 Duration/ID=0us, DA(RA)=ff:ff:ff:ff:ff:ff, SA(TA)=00:00:00:00:00:13, BSSID=00:00:00:00:00:13, FragNumber=0, SeqNumber=0) ns3::LlcSnapHeader (type 0x800) ns3::Ipv4Header (tos 0x0 DSCP Default ECN Not-ECT ttl 1 id 0 protocol 17 offset (bytes) 0 flags [none] length: 48 192.168.0.19 > 192.168.0.255) ns3::UdpHeader (length: 28 654 > 654) ns3::aodv::TypeHeader (RREP) ns3::aodv::RrepHeader (destination: ipv4 192.168.0.19 sequence number 0 source ipv4 192.168.0.19 lifetime 2000 acknowledgment required flag 0) 
r 0.00591493 DsssRate1Mbps /NodeList/1/DeviceList/0/$ns3::WifiNetDevice/Phy/State/RxOk ns3::WifiMacHeader (DATA ToDS=0, FromDS=0, MoreFrag=0, Retry=0, PowerManagement=0, MoreData=0 Duration/ID=0us, DA(RA)=ff:ff:ff:ff:ff:ff, SA(TA)=00:00:00:00:00:13, BSSID=00:00:00:00:00:13, FragNumber=0, SeqNumber=0) ns3::LlcSnapHeader (type 0x800) ns3::Ipv4Header (tos 0x0 DSCP Default ECN Not-ECT ttl 1 id 0 protocol 17 offset (bytes) 0 flags [none] length: 48 192.168.0.19 > 192.168.0.255) ns3::UdpHeader (length: 28 654 > 654) ns3::aodv::TypeHeader (RREP) ns3::aodv::RrepHeader (destination: ipv4 192.168.0.19 sequence number 0 source ipv4 192.168.0.19 lifetime 2000 acknowledgment required flag 0) 
r 0.00591493 DsssRate1Mbps /NodeList/10/DeviceList/0/$ns3::WifiNetDevice/Phy/State/RxOk ns3::WifiMacHeader (DATA ToDS=0, FromDS=0, MoreFrag=0, Retry=0, PowerManagement=0, MoreData=0 Duration/ID=0us, DA(RA)=ff:ff:ff:ff:ff:ff, SA(TA)=00:00:00:00:00:13, BSSID=00:00:00:00:00:13, FragNumber=0, SeqNumber=0) ns3::LlcSnapHeader (type 0x800) ns3::Ipv4Header (tos 0x0 DSCP Default ECN Not-ECT ttl 1 id 0 protocol 17 offset (bytes) 0 flags [none] length: 48 192.168.0.19 > 192.168.0.255) ns3::UdpHeader (length: 28 654 > 654) ns3::aodv::TypeHeader (RREP) ns3::aodv::RrepHeader (destination: ipv4 192.168.0.19 sequence number 0 source ipv4 192.168.0.19 lifetime 2000 acknowledgment required flag 0) 
r 0.00591499 DsssRate1Mbps /NodeList/14/DeviceList/0/$ns3::WifiNetDevice/Phy/State/RxOk ns3::WifiMacHeader (DATA ToDS=0, FromDS=0, MoreFrag=0, Retry=0, PowerManagement=0, MoreData=0 Duration/ID=0us, DA(RA)=ff:ff:ff:ff:ff:ff, SA(TA)=00:00:00:00:00:13, BSSID=00:00:00:00:00:13, FragNumber=0, SeqNumber=0) ns3::LlcSnapHeader (type 0x800) ns3::Ipv4Header (tos 0x0 DSCP Default ECN Not-ECT ttl 1 id 0 protocol 17 offset (bytes) 0 flags [none] length: 48 192.168.0.19 > 192.168.0.255) ns3::UdpHeader (length: 28 654 > 654) ns3::aodv::TypeHeader (RREP) ns3::aodv::RrepHeader (destination: ipv4 192.168.0.19 sequence number 0 source ipv4 192.168.0.19 lifetime 2000 acknowledgment required flag 0) 
r 0.005915 DsssRate1Mbps /NodeList/2/DeviceList/0/$ns3::WifiNetDevice/Phy/State/RxOk ns3::WifiMacHeader (DATA ToDS=0, FromDS=0, MoreFrag=0, Retry=0, PowerManagement=0, MoreData=0 Duration/ID=0us, DA(RA)=ff:ff:ff:ff:ff:ff, SA(TA)=00:00:00:00:00:13, BSSID=00:00:00:00:00:13, FragNumber=0, SeqNumber=0) ns3::LlcSnapHeader (type 0x800) ns3::Ipv4Header (tos 0x0 DSCP Default ECN Not-ECT ttl 1 id 0 protocol 17 offset (bytes) 0 flags [none] length: 48 192.168.0.19 > 192.168.0.255) ns3::UdpHeader (length: 28 654 > 654) ns3::aodv::TypeHeader (RREP) ns3::aodv::RrepHeader (destination: ipv4 192.168.0.19 sequence number 0 source ipv4 192.168.0.19 lifetime 2000 acknowledgment required flag 0) 
r 0.00591501 DsssRate1Mbps /NodeList/6/DeviceList/0/$ns3::WifiNetDevice/Phy/State/RxOk ns3::WifiMacHeader (DATA ToDS=0, FromDS=0, MoreFrag=0, Retry=0, PowerManagement=0, MoreData=0 Duration/ID=0us, DA(RA)=ff:ff:ff:ff:ff:ff, SA(TA)=00:00:00:00:00:13, BSSID=00:00:00:00:00:13, FragNumber=0, SeqNumber=0) ns3::LlcSnapHeader (type 0x800) ns3::Ipv4Header (tos 0x0 DSCP Default ECN Not-ECT ttl 1 id 0 protocol 17 offset (bytes) 0 flags [none] length: 48 192.168.0.19 > 192.168.0.255) ns3::UdpHeader (length: 28 654 > 654) ns3::aodv::TypeHeader (RREP) ns3::aodv::RrepHeader (destination: ipv4 192.168.0.19 sequence number 0 source ipv4 192.168.0.19 lifetime 2000 acknowledgment required flag 0) 
r 0.00591506 DsssRate1Mbps /NodeList/16/DeviceList/0/$ns3::WifiNetDevice/Phy/State/RxOk ns3::WifiMacHeader (DATA ToDS=0, FromDS=0, MoreFrag=0, Retry=0, PowerManagement=0, MoreData=0 Duration/ID=0us, DA(RA)=ff:ff:ff:ff:ff:ff, SA(TA)=00:00:00:00:00:13, BSSID=00:00:00:00:00:13, FragNumber=0, SeqNumber=0) ns3::LlcSnapHeader (type 0x800) ns3::Ipv4Header (tos 0x0 DSCP Default ECN Not-ECT ttl 1 id 0 protocol 17 offset (bytes) 0 flags [none] length: 48 192.168.0.19 > 192.168.0.255) ns3::UdpHeader (length: 28 654 > 654) ns3::aodv::TypeHeader (RREP) ns3::aodv::RrepHeader (destination: ipv4 192.168.0.19 sequence number 0 source ipv4 192.168.0.19 lifetime 2000 acknowledgment required flag 0) 
r 0.00591514 DsssRate1Mbps /NodeList/8/DeviceList/0/$ns3::WifiNetDevice/Phy/State/RxOk ns3::WifiMacHeader (DATA ToDS=0, FromDS=0, MoreFrag=0, Retry=0, PowerManagement=0, MoreData=0 Duration/ID=0us, DA(RA)=ff:ff:ff:ff:ff:ff, SA(TA)=00:00:00:00:00:13, BSSID=00:00:00:00:00:13, FragNumber=0, SeqNumber=0) ns3::LlcSnapHeader (type 0x800) ns3::Ipv4Header (tos 0x0 DSCP Default ECN Not-ECT ttl 1 id 0 protocol 17 offset (bytes) 0 flags [none] length: 48 192.168.0.19 > 192.168.0.255) ns3::UdpHeader (length: 28 654 > 654) ns3::aodv::TypeHeader (RREP) ns3::aodv::RrepHeader (destination: ipv4 192.168.0.19 sequence number 0 source ipv4 192.168.0.19 lifetime 2000 acknowledgment required flag 0) 
t 0.00805 /NodeList/9/DeviceList/0/$ns3::WifiNetDevice/Phy/State/Tx DsssRate1Mbps ns3::WifiMacHeader (DATA ToDS=0, FromDS=0, MoreFrag=0, Retry=0, PowerManagement=0, MoreData=0 Duration/ID=0us, DA(RA)=ff:ff:ff:ff:ff:ff, SA(TA)=00:00:00:00:00:0a, BSSID=00:00:00:00:00:0a, FragNumber=0, SeqNumber=0) ns3::LlcSnapHeader (type 0x800) ns3::Ipv4Header (tos 0x0 DSCP Default ECN Not-ECT ttl 1 id 0 protocol 17 offset (bytes) 0 flags [none] length: 48 192.168.0.10 > 192.168.0.255) ns3::UdpHeader (length: 28 654 > 654) ns3::aodv::TypeHeader (RREP) ns3::aodv::RrepHeader (destination: ipv4 192.168.0.10 sequence number 0 source ipv4 192.168.0.10 lifetime 2000 acknowledgment required flag 0) 
r 0.00891456 DsssRate1Mbps /NodeList/17/DeviceList/0/$ns3::WifiNetDevice/Phy/State/RxOk ns3::WifiMacHeader (DATA ToDS=0, FromDS=0, MoreFrag=0, Retry=0, PowerManagement=0, MoreData=0 Duration/ID=0us, DA(RA)=ff:ff:ff:ff:ff:ff, SA(TA)=00:00:00:00:00:0a, BSSID=00:00:00:00:00:0a, FragNumber=0, SeqNumber=0) ns3::LlcSnapHeader (type 0x800) ns3::Ipv4Header (tos 0x0 DSCP Default ECN Not-ECT ttl 1 id 0 protocol 17 offset (bytes) 0 flags [none] length: 48 192.168.0.10 > 192.168.0.255) ns3::UdpHeader (length: 28 654 > 654) ns3::aodv::TypeHeader (RREP) ns3::aodv::RrepHeader (destination: ipv4 192.168.0.10 sequence number 0 source ipv4 192.168.0.10 lifetime 2000 acknowledgment required flag 0) 
r 0.00891501 DsssRate1Mbps /NodeList/0/DeviceList/0/$ns3::WifiNetDevice/Phy/State/RxOk ns3::WifiMacHeader (DATA ToDS=0, FromDS=0, MoreFrag=0, Retry=0, PowerManagement=0, MoreData=0 Duration/ID=0us, DA(RA)=ff:ff:ff:ff:ff:ff, SA(TA)=00:00:00:00:00:0a, BSSID=00:00:00:00:00:0a, FragNumber=0, SeqNumber=0) ns3::LlcSnapHeader (type 0x800) ns3::Ipv4Header (tos 0x0 DSCP Default ECN Not-ECT ttl 1 id 0 protocol 17 offset (bytes) 0 flags [none] length: 48 192.168.0.10 > 192.168.0.255) ns3::UdpHeader (length: 28 654 > 654) ns3::aodv::TypeHeader (RREP) ns3::aodv::RrepHeader (destination: ipv4 192.168.0.10 sequence number 0 source ipv4 192.168.0.10 lifetime 2000 acknowledgment required flag 0) 
r 0.00891521 DsssRate1Mbps /NodeList/2/DeviceList/0/$ns3::WifiNetDevice/Phy/State/RxOk ns3::WifiMacHeader (DATA ToDS=0, FromDS=0, MoreFrag=0, Retry=0, PowerManagement=0, MoreData=0 Duration/ID=0us, DA(RA)=ff:ff:ff:ff:ff:ff, SA(TA)=00:00:00:00:00:0a, BSSID=00:00:00:00:00:0a, FragNumber=0, SeqNumber=0) ns3::LlcSnapHeader (type 0x800) ns3::Ipv4Header (tos 0x0 DSCP Default ECN Not-ECT ttl 1 id 0 protocol 17 offset (bytes) 0 flags [none] length: 48 192.168.0.10 > 192.168.0.255) ns3::UdpHeader (length: 28 654 > 654) ns3::aodv::TypeHeader (RREP) ns3::aodv::RrepHeader (destination: ipv4 192.168.0.10 sequence number 0 source ipv4 192.168.0.10 lifetime 2000 acknowledgment required flag 0) 
r 0.00891521 DsssRate1Mbps /NodeList/6/DeviceList/0/$ns3::WifiNetDevice/Phy/State/RxOk ns3::WifiMacHeader (DATA ToDS=0, FromDS=0, MoreFrag=0, Retry=0, PowerManagement=0, MoreData=0 Duration/ID=0us, DA(RA)=ff:ff:ff:ff:ff:ff, SA(TA)=00:00:00:00:00:0a, BSSID=00:00:00:00:00:0a, FragNumber=0, SeqNumber=0) ns3::LlcSnapHeader (type 0x800) ns3::Ipv4Header (tos 0x0 DSCP Default ECN Not-ECT ttl 1 id 0 protocol 17 offset (bytes) 0 flags [none] length: 48 192.168.0.10 > 192.168.0.255) ns3::UdpHeader (length: 28 654 > 654) ns3::aodv::TypeHeader (RREP) ns3::aodv::RrepHeader (destination: ipv4 192.168.0.10 sequence number 0 source ipv4 192.168.0.10 lifetime 2000 acknowledgment required flag 0) 
t 0.01305 /NodeList/17/DeviceList/0/$ns3::WifiNetDevice/Phy/State/Tx DsssRate1Mbps ns3::WifiMacHeader (DATA ToDS=0, FromDS=0, MoreFrag=0, Retry=0, PowerManagement=0, MoreData=0 Duration/ID=0us, DA(RA)=ff:ff:ff:ff:ff:ff, SA(TA)=00:00:00:00:00:12, BSSID=00:00:00:00:00:12, FragNumber=0, SeqNumber=0) ns3::LlcSnapHeader (type 0x800) ns3::Ipv4Header (tos 0x0 DSCP Default ECN Not-ECT ttl 1 id 0 protocol 17 offset (bytes) 0 flags [none] length: 48 192.168.0.18 > 192.168.0.255) ns3::UdpHeader (length: 28 654 > 654) ns3::aodv::TypeHeader (RREP) ns3::aodv::RrepHeader (destination: ipv4 192.168.0.18 sequence number 0 source ipv4 192.168.0.18 lifetime 2000 acknowledgment required flag 0) 
r 0.0139146 DsssRate1Mbps /NodeList/9/DeviceList/0/$ns3::WifiNetDevice/Phy/State/RxOk ns3::WifiMacHeader (DATA ToDS=0, FromDS=0, MoreFrag=0, Retry=0, PowerManagement=0, MoreData=0 Duration/ID=0us, DA(RA)=ff:ff:ff:ff:ff:ff, SA(TA)=00:00:00:00:00:12, BSSID=00:00:00:00:00:12, FragNumber=0, SeqNumber=0) ns3::LlcSnapHeader (type 0x800) ns3::Ipv4Header (tos 0x0 DSCP Default ECN Not-ECT ttl 1 id 0 protocol 17 offset (bytes) 0 flags [none] length: 48 192.168.0.18 > 192.168.0.255) ns3::UdpHeader (length: 28 654 > 654) ns3::aodv::TypeHeader (RREP) ns3::aodv::RrepHeader (destination: ipv4 192.168.0.18 sequence number 0 source ipv4 192.168.0.18 lifetime 2000 acknowledgment required flag 0) 
r 0.0139146 DsssRate1Mbps /NodeList/0/DeviceList/0/$ns3::WifiNetDevice/Phy/State/RxOk ns3::WifiMacHeader (DATA ToDS=0, FromDS=0, MoreFrag=0, Retry=0, PowerManagement=0, MoreData=0 Duration/ID=0us, DA(RA)=ff:ff:ff:ff:ff:ff, SA(TA)=00:00:00:00:00:12, BSSID=00:00:00:00:00:12, FragNumber=0, SeqNumber=0) ns3::LlcSnapHeader (type 0x800) ns3::Ipv4Header (tos 0x0 DSCP Default ECN Not-ECT ttl 1 id 0 protocol 17 offset (bytes) 0 flags [none] length: 48 192.168.0.18 > 192.168.0.255) ns3::UdpHeader (length: 28 654 > 654) ns3::aodv::TypeHeader (RREP) ns3::aodv::RrepHeader (destination: ipv4 192.168.0.18 sequence number 0 source ipv4 192.168.0.18 lifetime 2000 acknowledgment required flag 0) 
r 0.0139149 DsssRate1Mbps /NodeList/6/DeviceList/0/$ns3::WifiNetDevice/Phy/State/RxOk ns3::WifiMacHeader (DATA ToDS=0, FromDS=0, MoreFrag=0, Retry=0, PowerManagement=0, MoreData=0 Duration/ID=0us, DA(RA)=ff:ff:ff:ff:ff:ff, SA(TA)=00:00:00:00:00:12, BSSID=00:00:00:00:00:12, FragNumber=0, SeqNumber=0) ns3::LlcSnapHeader (type 0x800) ns3::Ipv4Header (tos 0x0 DSCP Default ECN Not-ECT ttl 1 id 0 protocol 17 offset (bytes) 0 flags [none] length: 48 192.168.0.18 > 192.168.0.255) ns3::UdpHeader (length: 28 654 > 654) ns3::aodv::TypeHeader (RREP) ns3::aodv::RrepHeader (destination: ipv4 192.168.0.18 sequence number 0 source ipv4 192.168.0.18 lifetime 2000 acknowledgment required flag 0) 
r 0.0139149 DsssRate1Mbps /NodeList/2/DeviceList/0/$ns3::WifiNetDevice/Phy/State/RxOk ns3::WifiMacHeader (DATA ToDS=0, FromDS=0, MoreFrag=0, Retry=0, PowerManagement=0, MoreData=0 Duration/ID=0us, DA(RA)=ff:ff:ff:ff:ff:ff, SA(TA)=00:00:00:00:00:12, BSSID=00:00:00:00:00:12, FragNumber=0, SeqNumber=0) ns3::LlcSnapHeader (type 0x800) ns3::Ipv4Header (tos 0x0 DSCP Default ECN Not-ECT ttl 1 id 0 protocol 17 offset (bytes) 0 flags [none] length: 48 192.168.0.18 > 192.168.0.255) ns3::UdpHeader (length: 28 654 > 654) ns3::aodv::TypeHeader (RREP) ns3::aodv::RrepHeader (destination: ipv4 192.168.0.18 sequence number 0 source ipv4 192.168.0.18 lifetime 2000 acknowledgment required flag 0) 
r 0.0139152 DsssRate1Mbps /NodeList/15/DeviceList/0/$ns3::WifiNetDevice/Phy/State/RxOk ns3::WifiMacHeader (DATA ToDS=0, FromDS=0, MoreFrag=0, Retry=0, PowerManagement=0, MoreData=0 Duration/ID=0us, DA(RA)=ff:ff:ff:ff:ff:ff, SA(TA)=00:00:00:00:00:12, BSSID=00:00:00:00:00:12, FragNumber=0, SeqNumber=0) ns3::LlcSnapHeader (type 0x800) ns3::Ipv4Header (tos 0x0 DSCP Default ECN Not-ECT ttl 1 id 0 protocol 17 offset (bytes) 0 flags [none] length: 48 192.168.0.18 > 192.168.0.255) ns3::UdpHeader (length: 28 654 > 654) ns3::aodv::TypeHeader (RREP) ns3::aodv::RrepHeader (destination: ipv4 192.168.0.18 sequence number 0 source ipv4 192.168.0.18 lifetime 2000 acknowledgment required flag 0) 
t 0.01405 /NodeList/0/DeviceList/0/$ns3::WifiNetDevice/Phy/State/Tx DsssRate1Mbps ns3::WifiMacHeader (DATA ToDS=0, FromDS=0, MoreFrag=0, Retry=0, PowerManagement=0, MoreData=0 Duration/ID=0us, DA(RA)=ff:ff:ff:ff:ff:ff, SA(TA)=00:00:00:00:00:01, BSSID=00:00:00:00:00:01, FragNumber=0, SeqNumber=0) ns3::LlcSnapHeader (type 0x800) ns3::Ipv4Header (tos 0x0 DSCP Default ECN Not-ECT ttl 1 id 0 protocol 17 offset (bytes) 0 flags [none] length: 48 192.168.0.1 > 192.168.0.255) ns3::UdpHeader (length: 28 654 > 654) ns3::aodv::TypeHeader (RREP) ns3::aodv::RrepHeader (destination: ipv4 192.168.0.1 sequence number 0 source ipv4 192.168.0.1 lifetime 2000 acknowledgment required flag 0) 
t 0.01405 /NodeList/8/DeviceList/0/$ns3::WifiNetDevice/Phy/State/Tx DsssRate1Mbps ns3::WifiMacHeader (DATA ToDS=0, FromDS=0, MoreFrag=0, Retry=0, PowerManagement=0, MoreData=0 Duration/ID=0us, DA(RA)=ff:ff:ff:ff:ff:ff, SA(TA)=00:00:00:00:00:09, BSSID=00:00:00:00:00:09, FragNumber=0, SeqNumber=0) ns3::LlcSnapHeader (type 0x800) ns3::Ipv4Header (tos 0x0 DSCP Default ECN Not-ECT ttl 1 id 0 protocol 17 offset (bytes) 0 flags [none] length: 48 192.168.0.9 > 192.168.0.255) ns3::UdpHeader (length: 28 654 > 654) ns3::aodv::TypeHeader (RREP) ns3::aodv::RrepHeader (destination: ipv4 192.168.0.9 sequence number 0 source ipv4 192.168.0.9 lifetime 2000 acknowledgment required flag 0) 
r 0.0149142 DsssRate1Mbps /NodeList/4/DeviceList/0/$ns3::WifiNetDevice/Phy/State/RxOk ns3::WifiMacHeader (DATA ToDS=0, FromDS=0, MoreFrag=0, Retry=0, PowerManagement=0, MoreData=0 Duration/ID=0us, DA(RA)=ff:ff:ff:ff:ff:ff, SA(TA)=00:00:00:00:00:09, BSSID=00:00:00:00:00:09, FragNumber=0, SeqNumber=0) ns3::LlcSnapHeader (type 0x800) ns3::Ipv4Header (tos 0x0 DSCP Default ECN Not-ECT ttl 1 id 0 protocol 17 offset (bytes) 0 flags [none] length: 48 192.168.0.9 > 192.168.0.255) ns3::UdpHeader (length: 28 654 > 654) ns3::aodv::TypeHeader (RREP) ns3::aodv::RrepHeader (destination: ipv4 192.168.0.9 sequence number 0 source ipv4 192.168.0.9 lifetime 2000 acknowledgment required flag 0) 
r 0.0149145 DsssRate1Mbps /NodeList/5/DeviceList/0/$ns3::WifiNetDevice/Phy/State/RxOk ns3::WifiMacHeader (DATA ToDS=0, FromDS=0, MoreFrag=0, Retry=0, PowerManagement=0, MoreData=0 Duration/ID=0us, DA(RA)=ff:ff:ff:ff:ff:ff, SA(TA)=00:00:00:00:00:09, BSSID=00:00:00:00:00:09, FragNumber=0, SeqNumber=0) ns3::LlcSnapHeader (type 0x800) ns3::Ipv4Header (tos 0x0 DSCP Default ECN Not-ECT ttl 1 id 0 protocol 17 offset (bytes) 0 flags [none] length: 48 192.168.0.9 > 192.168.0.255) ns3::UdpHeader (length: 28 654 > 654) ns3::aodv::TypeHeader (RREP) ns3::aodv::RrepHeader (destination: ipv4 192.168.0.9 sequence number 0 source ipv4 192.168.0.9 lifetime 2000 acknowledgment required flag 0) 
r 0.0149146 DsssRate1Mbps /NodeList/17/DeviceList/0/$ns3::WifiNetDevice/Phy/State/RxOk ns3::WifiMacHeader (DATA ToDS=0, FromDS=0, MoreFrag=0, Retry=0, PowerManagement=0, MoreData=0 Duration/ID=0us, DA(RA)=ff:ff:ff:ff:ff:ff, SA(TA)=00:00:00:00:00:01, BSSID=00:00:00:00:00:01, FragNumber=0, SeqNumber=0) ns3::LlcSnapHeader (type 0x800) ns3::Ipv4Header (tos 0x0 DSCP Default ECN Not-ECT ttl 1 id 0 protocol 17 offset (bytes) 0 flags [none] length: 48 192.168.0.1 > 192.168.0.255) ns3::UdpHeader (length: 28 654 > 654) ns3::aodv::TypeHeader (RREP) ns3::aodv::RrepHeader (destination: ipv4 192.168.0.1 sequence number 0 source ipv4 192.168.0.1 lifetime 2000 acknowledgment required flag 0) 
r 0.0149147 DsssRate1Mbps /NodeList/15/DeviceList/0/$ns3::WifiNetDevice/Phy/State/RxOk ns3::WifiMacHeader (DATA ToDS=0, FromDS=0, MoreFrag=0, Retry=0, PowerManagement=0, MoreData=0 Duration/ID=0us, DA(RA)=ff:ff:ff:ff:ff:ff, SA(TA)=00:00:00:00:00:01, BSSID=00:00:00:00:00:01, FragNumber=0, SeqNumber=0) ns3::LlcSnapHeader (type 0x800) ns3::Ipv4Header (tos 0x0 DSCP Default ECN Not-ECT ttl 1 id 0 protocol 17 offset (bytes) 0 flags [none] length: 48 192.168.0.1 > 192.168.0.255) ns3::UdpHeader (length: 28 654 > 654) ns3::aodv::TypeHeader (RREP) ns3::aodv::RrepHeader (destination: ipv4 192.168.0.1 sequence number 0 source ipv4 192.168.0.1 lifetime 2000 acknowledgment required flag 0) 
r 0.0149147 DsssRate1Mbps /NodeList/10/DeviceList/0/$ns3::WifiNetDevice/Phy/State/RxOk ns3::WifiMacHeader (DATA ToDS=0, FromDS=0, MoreFrag=0, Retry=0, PowerManagement=0, MoreData=0 Duration/ID=0us, DA(RA)=ff:ff:ff:ff:ff:ff, SA(TA)=00:00:00:00:00:09, BSSID=00:00:00:00:00:09, FragNumber=0, SeqNumber=0) ns3::LlcSnapHeader (type 0x800) ns3::Ipv4Header (tos 0x0 DSCP Default ECN Not-ECT ttl 1 id 0 protocol 17 offset (bytes) 0 flags [none] length: 48 192.168.0.9 > 192.168.0.255) ns3::UdpHeader (length: 28 654 > 654) ns3::aodv::TypeHeader (RREP) ns3::aodv::RrepHeader (destination: ipv4 192.168.0.9 sequence number 0 source ipv4 192.168.0.9 lifetime 2000 acknowledgment required flag 0) 
r 0.0149147 DsssRate1Mbps /NodeList/11/DeviceList/0/$ns3::WifiNetDevice/Phy/State/RxOk ns3::WifiMacHeader (DATA ToDS=0, FromDS=0, MoreFrag=0, Retry=0, PowerManagement=0, MoreData=0 Duration/ID=0us, DA(RA)=ff:ff:ff:ff:ff:ff, SA(TA)=00:00:00:00:00:09, BSSID=00:00:00:00:00:09, FragNumber=0, SeqNumber=0) ns3::LlcSnapHeader (type 0x800) ns3::Ipv4Header (tos 0x0 DSCP Default ECN Not-ECT ttl 1 id 0 protocol 17 offset (bytes) 0 flags [none] length: 48 192.168.0.9 > 192.168.0.255) ns3::UdpHeader (length: 28 654 > 654) ns3::aodv::TypeHeader (RREP) ns3::aodv::RrepHeader (destination: ipv4 192.168.0.9 sequence number 0 source ipv4 192.168.0.9 lifetime 2000 acknowledgment required flag 0) 
r 0.014915 DsssRate1Mbps /NodeList/9/DeviceList/0/$ns3::WifiNetDevice/Phy/State/RxOk ns3::WifiMacHeader (DATA ToDS=0, FromDS=0, MoreFrag=0, Retry=0, PowerManagement=0, MoreData=0 Duration/ID=0us, DA(RA)=ff:ff:ff:ff:ff:ff, SA(TA)=00:00:00:00:00:01, BSSID=00:00:00:00:00:01, FragNumber=0, SeqNumber=0) ns3::LlcSnapHeader (type 0x800) ns3::Ipv4Header (tos 0x0 DSCP Default ECN Not-ECT ttl 1 id 0 protocol 17 offset (bytes) 0 flags [none] length: 48 192.168.0.1 > 192.168.0.255) ns3::UdpHeader (length: 28 654 > 654) ns3::aodv::TypeHeader (RREP) ns3::aodv::RrepHeader (destination: ipv4 192.168.0.1 sequence number 0 source ipv4 192.168.0.1 lifetime 2000 acknowledgment required flag 0) 
r 0.0149151 DsssRate1Mbps /NodeList/1/DeviceList/0/$ns3::WifiNetDevice/Phy/State/RxOk ns3::WifiMacHeader (DATA ToDS=0, FromDS=0, MoreFrag=0, Retry=0, PowerManagement=0, MoreData=0 Duration/ID=0us, DA(RA)=ff:ff:ff:ff:ff:ff, SA(TA)=00:00:00:00:00:09, BSSID=00:00:00:00:00:09, FragNumber=0, SeqNumber=0) ns3::LlcSnapHeader (type 0x800) ns3::Ipv4Header (tos 0x0 DSCP Default ECN Not-ECT ttl 1 id 0 protocol 17 offset (bytes) 0 flags [none] length: 48 192.168.0.9 > 192.168.0.255) ns3::UdpHeader (length: 28 654 > 654) ns3::aodv::TypeHeader (RREP) ns3::aodv::RrepHeader (destination: ipv4 192.168.0.9 sequence number 0 source ipv4 192.168.0.9 lifetime 2000 acknowledgment required flag 0) 
r 0.0149152 DsssRate1Mbps /NodeList/12/DeviceList/0/$ns3::WifiNetDevice/Phy/State/RxOk ns3::WifiMacHeader (DATA ToDS=0, FromDS=0, MoreFrag=0, Retry=0, PowerManagement=0, MoreData=0 Duration/ID=0us, DA(RA)=ff:ff:ff:ff:ff:ff, SA(TA)=00:00:00:00:00:09, BSSID=00:00:00:00:00:09, FragNumber=0, SeqNumber=0) ns3::LlcSnapHeader (type 0x800) ns3::Ipv4Header (tos 0x0 DSCP Default ECN Not-ECT ttl 1 id 0 protocol 17 offset (bytes) 0 flags [none] length: 48 192.168.0.9 > 192.168.0.255) ns3::UdpHeader (length: 28 654 > 654) ns3::aodv::TypeHeader (RREP) ns3::aodv::RrepHeader (destination: ipv4 192.168.0.9 sequence number 0 source ipv4 192.168.0.9 lifetime 2000 acknowledgment required flag 0) 
t 0.01705 /NodeList/14/DeviceList/0/$ns3::WifiNetDevice/Phy/State/Tx DsssRate1Mbps ns3::WifiMacHeader (DATA ToDS=0, FromDS=0, MoreFrag=0, Retry=0, PowerManagement=0, MoreData=0 Duration/ID=0us, DA(RA)=ff:ff:ff:ff:ff:ff, SA(TA)=00:00:00:00:00:0f, BSSID=00:00:00:00:00:0f, FragNumber=0, SeqNumber=0) ns3::LlcSnapHeader (type 0x800) ns3::Ipv4Header (tos 0x0 DSCP Default ECN Not-ECT ttl 1 id 0 protocol 17 offset (bytes) 0 flags [none] length: 48 192.168.0.15 > 192.168.0.255) ns3::UdpHeader (length: 28 654 > 654) ns3::aodv::TypeHeader (RREP) ns3::aodv::RrepHeader (destination: ipv4 192.168.0.15 sequence number 0 source ipv4 192.168.0.15 lifetime 2000 acknowledgment required flag 0) 
r 0.0179146 DsssRate1Mbps /NodeList/13/DeviceList/0/$ns3::WifiNetDevice/Phy/State/RxOk ns3::WifiMacHeader (DATA ToDS=0, FromDS=0, MoreFrag=0, Retry=0, PowerManagement=0, MoreData=0 Duration/ID=0us, DA(RA)=ff:ff:ff:ff:ff:ff, SA(TA)=00:00:00:00:00:0f, BSSID=00:00:00:00:00:0f, FragNumber=0, SeqNumber=0) ns3::LlcSnapHeader (type 0x800) ns3::Ipv4Header (tos 0x0 DSCP Default ECN Not-ECT ttl 1 id 0 protocol 17 offset (bytes) 0 flags [none] length: 48 192.168.0.15 > 192.168.0.255) ns3::UdpHeader (length: 28 654 > 654) ns3::aodv::TypeHeader (RREP) ns3::aodv::RrepHeader (destination: ipv4 192.168.0.15 sequence number 0 source ipv4 192.168.0.15 lifetime 2000 acknowledgment required flag 0) 
r 0.017915 DsssRate1Mbps /NodeList/18/DeviceList/0/$ns3::WifiNetDevice/Phy/State/RxOk ns3::WifiMacHeader (DATA ToDS=0, FromDS=0, MoreFrag=0, Retry=0, PowerManagement=0, MoreData=0 Duration/ID=0us, DA(RA)=ff:ff:ff:ff:ff:ff, SA(TA)=00:00:00:00:00:0f, BSSID=00:00:00:00:00:0f, FragNumber=0, SeqNumber=0) ns3::LlcSnapHeader (type 0x800) ns3::Ipv4Header (tos 0x0 DSCP Default ECN Not-ECT ttl 1 id 0 protocol 17 offset (bytes) 0 flags [none] length: 48 192.168.0.15 > 192.168.0.255) ns3::UdpHeader (length: 28 654 > 654) ns3::aodv::TypeHeader (RREP) ns3::aodv::RrepHeader (destination: ipv4 192.168.0.15 sequence number 0 source ipv4 192.168.0.15 lifetime 2000 acknowledgment required flag 0) 
t 0.02105 /NodeList/16/DeviceList/0/$ns3::WifiNetDevice/Phy/State/Tx DsssRate1Mbps ns3::WifiMacHeader (DATA ToDS=0, FromDS=0, MoreFrag=0, Retry=0, PowerManagement=0, MoreData=0 Duration/ID=0us, DA(RA)=ff:ff:ff:ff:ff:ff, SA(TA)=00:00:00:00:00:11, BSSID=00:00:00:00:00:11, FragNumber=0, SeqNumber=0) ns3::LlcSnapHeader (type 0x800) ns3::Ipv4Header (tos 0x0 DSCP Default ECN Not-ECT ttl 1 id 0 protocol 17 offset (bytes) 0 flags [none] length: 48 192.168.0.17 > 192.168.0.255) ns3::UdpHeader (length: 28 654 > 654) ns3::aodv::TypeHeader (RREP) ns3::aodv::RrepHeader (destination: ipv4 192.168.0.17 sequence number 0 source ipv4 192.168.0.17 lifetime 2000 acknowledgment required flag 0) 
r 0.0219147 DsssRate1Mbps /NodeList/3/DeviceList/0/$ns3::WifiNetDevice/Phy/State/RxOk ns3::WifiMacHeader (DATA ToDS=0, FromDS=0, MoreFrag=0, Retry=0, PowerManagement=0, MoreData=0 Duration/ID=0us, DA(RA)=ff:ff:ff:ff:ff:ff, SA(TA)=00:00:00:00:00:11, BSSID=00:00:00:00:00:11, FragNumber=0, SeqNumber=0) ns3::LlcSnapHeader (type 0x800) ns3::Ipv4Header (tos 0x0 DSCP Default ECN Not-ECT ttl 1 id 0 protocol 17 offset (bytes) 0 flags [none] length: 48 192.168.0.17 > 192.168.0.255) ns3::UdpHeader (length: 28 654 > 654) ns3::aodv::TypeHeader (RREP) ns3::aodv::RrepHeader (destination: ipv4 192.168.0.17 sequence number 0 source ipv4 192.168.0.17 lifetime 2000 acknowledgment required flag 0) 
r 0.0219148 DsssRate1Mbps /NodeList/1/DeviceList/0/$ns3::WifiNetDevice/Phy/State/RxOk ns3::WifiMacHeader (DATA ToDS=0, FromDS=0, MoreFrag=0, Retry=0, PowerManagement=0, MoreData=0 Duration/ID=0us, DA(RA)=ff:ff:ff:ff:ff:ff, SA(TA)=00:00:00:00:00:11, BSSID=00:00:00:00:00:11, FragNumber=0, SeqNumber=0) ns3::LlcSnapHeader (type 0x800) ns3::Ipv4Header (tos 0x0 DSCP Default ECN Not-ECT ttl 1 id 0 protocol 17 offset (bytes) 0 flags [none] length: 48 192.168.0.17 > 192.168.0.255) ns3::UdpHeader (length: 28 654 > 654) ns3::aodv::TypeHeader (RREP) ns3::aodv::RrepHeader (destination: ipv4 192.168.0.17 sequence number 0 source ipv4 192.168.0.17 lifetime 2000 acknowledgment required flag 0) 
r 0.0219151 DsssRate1Mbps /NodeList/18/DeviceList/0/$ns3::WifiNetDevice/Phy/State/RxOk ns3::WifiMacHeader (DATA ToDS=0, FromDS=0, MoreFrag=0, Retry=0, PowerManagement=0, MoreData=0 Duration/ID=0us, DA(RA)=ff:ff:ff:ff:ff:ff, SA(TA)=00:00:00:00:00:11, BSSID=00:00:00:00:00:11, FragNumber=0, SeqNumber=0) ns3::LlcSnapHeader (type 0x800) ns3::Ipv4Header (tos 0x0 DSCP Default ECN Not-ECT ttl 1 id 0 protocol 17 offset (bytes) 0 flags [none] length: 48 192.168.0.17 > 192.168.0.255) ns3::UdpHeader (length: 28 654 > 654) ns3::aodv::TypeHeader (RREP) ns3::aodv::RrepHeader (destination: ipv4 192.168.0.17 sequence number 0 source ipv4 192.168.0.17 lifetime 2000 acknowledgment required flag 0) 
r 0.0219151 DsssRate1Mbps /NodeList/5/DeviceList/0/$ns3::WifiNetDevice/Phy/State/RxOk ns3::WifiMacHeader (DATA ToDS=0, FromDS=0, MoreFrag=0, Retry=0, PowerManagement=0, MoreData=0 Duration/ID=0us, DA(RA)=ff:ff:ff:ff:ff:ff, SA(TA)=00:00:00:00:00:11, BSSID=00:00:00:00:00:11, FragNumber=0, SeqNumber=0) ns3::LlcSnapHeader (type 0x800) ns3::Ipv4Header (tos 0x0 DSCP Default ECN Not-ECT ttl 1 id 0 protocol 17 offset (bytes) 0 flags [none] length: 48 192.168.0.17 > 192.168.0.255) ns3::UdpHeader (length: 28 654 > 654) ns3::aodv::TypeHeader (RREP) ns3::aodv::RrepHeader (destination: ipv4 192.168.0.17 sequence number 0 source ipv4 192.168.0.17 lifetime 2000 acknowledgment required flag 0) 
r 0.0219152 DsssRate1Mbps /NodeList/13/DeviceList/0/$ns3::WifiNetDevice/Phy/State/RxOk ns3::WifiMacHeader (DATA ToDS=0, FromDS=0, MoreFrag=0, Retry=0, PowerManagement=0, MoreData=0 Duration/ID=0us, DA(RA)=ff:ff:ff:ff:ff:ff, SA(TA)=00:00:00:00:00:11, BSSID=00:00:00:00:00:11, FragNumber=0, SeqNumber=0) ns3::LlcSnapHeader (type 0x800) ns3::Ipv4Header (tos 0x0 DSCP Default ECN Not-ECT ttl 1 id 0 protocol 17 offset (bytes) 0 flags [none] length: 48 192.168.0.17 > 192.168.0.255) ns3::UdpHeader (length: 28 654 > 654) ns3::aodv::TypeHeader (RREP) ns3::aodv::RrepHeader (destination: ipv4 192.168.0.17 sequence number 0 source ipv4 192.168.0.17 lifetime 2000 acknowledgment required flag 0) 
t 0.02205 /NodeList/15/DeviceList/0/$ns3::WifiNetDevice/Phy/State/Tx DsssRate1Mbps ns3::WifiMacHeader (DATA ToDS=0, FromDS=0, MoreFrag=0, Retry=0, PowerManagement=0, MoreData=0 Duration/ID=0us, DA(RA)=ff:ff:ff:ff:ff:ff, SA(TA)=00:00:00:00:00:10, BSSID=00:00:00:00:00:10, FragNumber=0, SeqNumber=0) ns3::LlcSnapHeader (type 0x800) ns3::Ipv4Header (tos 0x0 DSCP Default ECN Not-ECT ttl 1 id 0 protocol 17 offset (bytes) 0 flags [none] length: 48 192.168.0.16 > 192.168.0.255) ns3::UdpHeader (length: 28 654 > 654) ns3::aodv::TypeHeader (RREP) ns3::aodv::RrepHeader (destination: ipv4 192.168.0.16 sequence number 0 source ipv4 192.168.0.16 lifetime 2000 acknowledgment required flag 0) 
r 0.0229147 DsssRate1Mbps /NodeList/0/DeviceList/0/$ns3::WifiNetDevice/Phy/State/RxOk ns3::WifiMacHeader (DATA ToDS=0, FromDS=0, MoreFrag=0, Retry=0, PowerManagement=0, MoreData=0 Duration/ID=0us, DA(RA)=ff:ff:ff:ff:ff:ff, SA(TA)=00:00:00:00:00:10, BSSID=00:00:00:00:00:10, FragNumber=0, SeqNumber=0) ns3::LlcSnapHeader (type 0x800) ns3::Ipv4Header (tos 0x0 DSCP Default ECN Not-ECT ttl 1 id 0 protocol 17 offset (bytes) 0 flags [none] length: 48 192.168.0.16 > 192.168.0.255) ns3::UdpHeader (length: 28 654 > 654) ns3::aodv::TypeHeader (RREP) ns3::aodv::RrepHeader (destination: ipv4 192.168.0.16 sequence number 0 source ipv4 192.168.0.16 lifetime 2000 acknowledgment required flag 0) 